LAMMPS

16 atoms
2 atom types

0 2.907623084239085 xlo xhi
0 2.5180754555811085 ylo yhi
0 2.3740643069077425 zlo zhi

Atoms

1 1 0.0 0.0 0.0
2 1 0.0 0.0 1.1870321534538715
3 1 0.7269057710597713 1.2590377277905542 0.0
4 1 0.7269057710597713 1.2590377277905542 1.1870321534538715
5 1 1.4538115421195426 0.0 0.0
6 1 1.4538115421195426 0.0 1.1870321534538715
7 1 2.1807173131793136 1.2590377277905545 0.0
8 1 2.1807173131793136 1.2590377277905545 1.1870321534538715
9 2 0.7269057710597713 0.4196792425968517 0.5935160767269357
10 2 0.7269057710597713 2.098396212984257 1.7805482301808062
11 2 1.4538115421195426 1.6787169703874059 0.5935160767269357
12 2 1.4538115421195426 0.8393584851937028 1.7805482301808062
13 2 2.1807173131793136 0.4196792425968517 0.5935160767269357
14 2 2.1807173131793136 2.098396212984257 1.7805482301808062
15 2 0.0 1.6787169703874065 0.5935160767269357
16 2 0.0 0.8393584851937028 1.7805482301808062
