LAMMPS

12 atoms
2 atom types

0 3.5610964603616146 xlo xhi
0 3.0840000000000023 ylo yhi
0 1.7805482301808073 zlo zhi

Atoms

1 1 0.8902741150904037 0.514 0.8902741150904037
2 1 0.0 1.028000000000001 0.8902741150904037
3 1 1.7805482301808073 2.0560000000000014 0.8902741150904037
4 1 0.8902741150904037 2.570000000000002 0.8902741150904037
5 1 2.6708223452712114 0.514 0.8902741150904037
6 1 1.7805482301808073 1.028000000000001 0.8902741150904037
7 1 0.0 2.056000000000001 0.8902741150904037
8 1 2.6708223452712114 2.570000000000002 0.8902741150904037
9 2 0.0 0.0 0.0
10 2 0.8902741150904037 1.5420000000000011 0.0
11 2 1.7805482301808073 0.0 0.0
12 2 2.6708223452712114 1.5420000000000016 0.0
