LAMMPS

16 atoms
2 atom types

0 2.3740643069077416 xlo xhi
0 2.3740643069077416 ylo yhi
0 2.3740643069077416 zlo zhi

Atoms

1 1 0.0 0.0 0.0
2 1 1.1870321534538708 1.1870321534538708 0.0
3 1 1.1870321534538708 0.0 1.1870321534538708
4 1 0.0 1.1870321534538708 1.1870321534538708
5 2 0.5935160767269354 0.5935160767269354 0.5935160767269354
6 2 1.7805482301808062 1.7805482301808062 1.7805482301808062
7 2 1.1870321534538708 1.1870321534538708 1.1870321534538708
8 2 1.7805482301808062 1.7805482301808062 0.5935160767269354
9 2 0.5935160767269354 0.5935160767269354 1.7805482301808062
10 2 0.0 0.0 1.1870321534538708
11 2 1.7805482301808062 0.5935160767269354 1.7805482301808062
12 2 0.5935160767269354 1.7805482301808062 0.5935160767269354
13 2 0.0 1.1870321534538708 0.0
14 2 0.5935160767269354 1.7805482301808062 1.7805482301808062
15 2 1.7805482301808062 0.5935160767269354 0.5935160767269354
16 2 1.1870321534538708 0.0 0.0
