LAMMPS

24 atoms
2 atom types

0 5.036150911162213 xlo xhi
0 4.361434626358624 ylo yhi
0 4.111999999999999 zlo zhi

Atoms

1 1 0.0 0.0 0.0
2 1 0.0 2.907623084239083 2.0560000000000005
3 1 1.2590377277905533 2.180717313179312 0.0
4 1 1.2590377277905533 0.7269057710597707 2.0560000000000005
5 1 2.5180754555811067 0.0 0.0
6 1 2.5180754555811067 2.907623084239083 2.0560000000000005
7 1 3.77711318337166 2.1807173131793123 0.0
8 1 3.77711318337166 0.7269057710597702 2.0560000000000005
9 2 1.2590377277905533 0.7269057710597702 0.5140000000000001
10 2 0.0 0.0 2.5700000000000007
11 2 1.2590377277905533 0.7269057710597702 3.5979999999999994
12 2 0.0 0.0 1.5419999999999998
13 2 2.5180754555811067 2.9076230842390824 0.5140000000000001
14 2 1.2590377277905533 2.180717313179312 2.5700000000000007
15 2 2.5180754555811067 2.9076230842390824 3.5979999999999994
16 2 1.2590377277905533 2.180717313179312 1.5419999999999998
17 2 3.77711318337166 0.7269057710597702 0.5140000000000001
18 2 2.5180754555811067 0.0 2.5700000000000007
19 2 3.77711318337166 0.7269057710597702 3.5979999999999994
20 2 2.5180754555811067 0.0 1.5419999999999998
21 2 0.0 2.9076230842390816 0.5140000000000001
22 2 3.77711318337166 2.1807173131793123 2.5700000000000007
23 2 0.0 2.9076230842390816 3.5979999999999994
24 2 3.77711318337166 2.1807173131793123 1.5419999999999998
