LAMMPS

48 atoms
2 atom types

0 4.112 xlo xhi
0 4.112 ylo yhi
0 4.112 zlo zhi

Atoms

1 1 2.056 2.056 1.028
2 1 0.0 0.0 1.028
3 1 2.056 1.028 2.056
4 1 0.0 3.084 2.056
5 1 0.0 2.056 3.084
6 1 2.056 0.0 3.084
7 1 0.0 1.028 0.0
8 1 2.056 3.084 0.0
9 1 1.028 2.056 2.056
10 1 3.084 0.0 2.056
11 1 3.084 3.084 3.084
12 1 1.028 1.028 3.084
13 1 3.084 2.056 0.0
14 1 1.028 0.0 0.0
15 1 1.028 3.084 1.028
16 1 3.084 1.028 1.028
17 2 0.0 0.0 0.0
18 2 1.028 1.028 0.0
19 2 2.056 2.056 0.0
20 2 3.084 3.084 0.0
21 2 1.028 0.0 1.028
22 2 2.056 1.028 1.028
23 2 3.084 2.056 1.028
24 2 0.0 3.084 1.028
25 2 2.056 0.0 2.056
26 2 3.084 1.028 2.056
27 2 0.0 2.056 2.056
28 2 1.028 3.084 2.056
29 2 3.084 0.0 3.084
30 2 0.0 1.028 3.084
31 2 1.028 2.056 3.084
32 2 2.056 3.084 3.084
33 2 0.0 1.028 1.028
34 2 1.028 2.056 1.028
35 2 2.056 3.084 1.028
36 2 3.084 0.0 1.028
37 2 1.028 1.028 2.056
38 2 2.056 2.056 2.056
39 2 3.084 3.084 2.056
40 2 0.0 0.0 2.056
41 2 2.056 1.028 3.084
42 2 3.084 2.056 3.084
43 2 0.0 3.084 3.084
44 2 1.028 0.0 3.084
45 2 3.084 1.028 0.0
46 2 0.0 2.056 0.0
47 2 1.028 3.084 0.0
48 2 2.056 0.0 0.0
