LAMMPS

48 atoms
2 atom types

0 4.112 xlo xhi
0 4.112 ylo yhi
0 4.112 zlo zhi

Atoms

1 1 0.0 0.0 0.0
2 1 1.028 1.028 0.0
3 1 2.056 2.056 0.0
4 1 3.084 3.084 0.0
5 1 1.028 0.0 1.028
6 1 2.056 1.028 1.028
7 1 3.084 2.056 1.028
8 1 0.0 3.084 1.028
9 1 2.056 0.0 2.056
10 1 3.084 1.028 2.056
11 1 0.0 2.056 2.056
12 1 1.028 3.084 2.056
13 1 3.084 0.0 3.084
14 1 0.0 1.028 3.084
15 1 1.028 2.056 3.084
16 1 2.056 3.084 3.084
17 1 0.0 1.028 1.028
18 1 1.028 2.056 1.028
19 1 2.056 3.084 1.028
20 1 3.084 0.0 1.028
21 1 1.028 1.028 2.056
22 1 2.056 2.056 2.056
23 1 3.084 3.084 2.056
24 1 0.0 0.0 2.056
25 1 2.056 1.028 3.084
26 1 3.084 2.056 3.084
27 1 0.0 3.084 3.084
28 1 1.028 0.0 3.084
29 1 3.084 1.028 0.0
30 1 0.0 2.056 0.0
31 1 1.028 3.084 0.0
32 1 2.056 0.0 0.0
33 2 2.056 2.056 1.028
34 2 0.0 0.0 1.028
35 2 2.056 1.028 2.056
36 2 0.0 3.084 2.056
37 2 0.0 2.056 3.084
38 2 2.056 0.0 3.084
39 2 0.0 1.028 0.0
40 2 2.056 3.084 0.0
41 2 1.028 2.056 2.056
42 2 3.084 0.0 2.056
43 2 3.084 3.084 3.084
44 2 1.028 1.028 3.084
45 2 3.084 2.056 0.0
46 2 1.028 0.0 0.0
47 2 1.028 3.084 1.028
48 2 3.084 1.028 1.028
