LAMMPS

8 atoms
2 atom types

0 2.691338940434892 xlo xhi
0 2.691338940434892 ylo yhi
0 2.691338940434892 zlo zhi

Atoms

1 1 0.514 1.3456694702174459 0.0
2 1 2.1773389404348915 1.3456694702174459 0.0
3 1 0.0 0.514 1.3456694702174459
4 1 0.0 2.1773389404348915 1.3456694702174459
5 1 1.3456694702174459 0.0 0.514
6 1 1.3456694702174459 0.0 2.1773389404348915
7 2 0.0 0.0 0.0
8 2 1.3456694702174459 1.3456694702174459 1.3456694702174459
