LAMMPS

2 atoms
2 atom types

0 1.1870321534538708 xlo xhi
0 1.1870321534538708 ylo yhi
0 1.1870321534538708 zlo zhi

Atoms

1 1 0.0 0.0 0.0
2 2 0.5935160767269354 0.5935160767269354 0.5935160767269354
