LAMMPS

4 atoms
2 atom types

0 1.4538115421195419 xlo xhi
0 1.4538115421195419 ylo yhi
0 1.4538115421195419 zlo zhi

Atoms

1 1 0.0 0.0 0.0
2 1 0.7269057710597709 0.7269057710597709 0.0
3 2 0.7269057710597709 0.0 0.7269057710597709
4 2 0.0 0.7269057710597709 0.7269057710597709
