LAMMPS

32 atoms
2 atom types

0 2.907623084239084 xlo xhi
0 2.907623084239084 ylo yhi
0 2.907623084239084 zlo zhi

Atoms

1 1 0.0 0.0 0.0
2 1 0.726905771059771 0.726905771059771 0.0
3 1 0.0 0.726905771059771 0.726905771059771
4 1 0.726905771059771 0.0 2.1807173131793127
5 1 0.726905771059771 1.453811542119542 0.726905771059771
6 1 0.0 1.453811542119542 1.453811542119542
7 1 0.726905771059771 2.1807173131793127 1.453811542119542
8 1 0.0 2.1807173131793127 2.1807173131793127
9 1 2.1807173131793127 0.0 0.726905771059771
10 1 1.453811542119542 0.0 1.453811542119542
11 1 2.1807173131793127 0.726905771059771 1.453811542119542
12 1 1.453811542119542 0.726905771059771 2.1807173131793127
13 1 1.453811542119542 1.453811542119542 0.0
14 1 2.1807173131793127 2.1807173131793127 0.0
15 1 1.453811542119542 2.1807173131793127 0.726905771059771
16 1 2.1807173131793127 1.453811542119542 2.1807173131793127
17 2 0.726905771059771 0.0 0.726905771059771
18 2 0.0 0.0 1.453811542119542
19 2 0.726905771059771 0.726905771059771 1.453811542119542
20 2 0.0 0.726905771059771 2.1807173131793127
21 2 0.0 1.453811542119542 0.0
22 2 0.726905771059771 2.1807173131793127 0.0
23 2 0.0 2.1807173131793127 0.726905771059771
24 2 0.726905771059771 1.453811542119542 2.1807173131793127
25 2 1.453811542119542 0.0 0.0
26 2 2.1807173131793127 0.726905771059771 0.0
27 2 1.453811542119542 0.726905771059771 0.726905771059771
28 2 2.1807173131793127 0.0 2.1807173131793127
29 2 2.1807173131793127 1.453811542119542 0.726905771059771
30 2 1.453811542119542 1.453811542119542 1.453811542119542
31 2 2.1807173131793127 2.1807173131793127 1.453811542119542
32 2 1.453811542119542 2.1807173131793127 2.1807173131793127
