LAMMPS

32 atoms
2 atom types

0 2.907623084239084 xlo xhi
0 2.907623084239084 ylo yhi
0 2.907623084239084 zlo zhi

Atoms

1 1 0.0 0.0 0.0
2 1 0.726905771059771 0.726905771059771 0.0
3 1 0.0 1.453811542119542 1.453811542119542
4 1 0.726905771059771 2.1807173131793127 1.453811542119542
5 1 1.453811542119542 0.0 1.453811542119542
6 1 2.1807173131793127 0.726905771059771 1.453811542119542
7 1 1.453811542119542 1.453811542119542 0.0
8 1 2.1807173131793127 2.1807173131793127 0.0
9 2 0.726905771059771 0.0 0.726905771059771
10 2 0.0 0.726905771059771 0.726905771059771
11 2 0.726905771059771 0.0 2.1807173131793127
12 2 0.0 0.726905771059771 2.1807173131793127
13 2 0.0 0.0 1.453811542119542
14 2 0.726905771059771 0.726905771059771 1.453811542119542
15 2 0.726905771059771 1.453811542119542 0.726905771059771
16 2 0.0 2.1807173131793127 0.726905771059771
17 2 0.0 1.453811542119542 0.0
18 2 0.726905771059771 2.1807173131793127 0.0
19 2 0.726905771059771 1.453811542119542 2.1807173131793127
20 2 0.0 2.1807173131793127 2.1807173131793127
21 2 2.1807173131793127 0.0 0.726905771059771
22 2 1.453811542119542 0.726905771059771 0.726905771059771
23 2 1.453811542119542 0.0 0.0
24 2 2.1807173131793127 0.726905771059771 0.0
25 2 2.1807173131793127 0.0 2.1807173131793127
26 2 1.453811542119542 0.726905771059771 2.1807173131793127
27 2 2.1807173131793127 1.453811542119542 0.726905771059771
28 2 1.453811542119542 2.1807173131793127 0.726905771059771
29 2 2.1807173131793127 1.453811542119542 2.1807173131793127
30 2 1.453811542119542 2.1807173131793127 2.1807173131793127
31 2 1.453811542119542 1.453811542119542 1.453811542119542
32 2 2.1807173131793127 2.1807173131793127 1.453811542119542
