LAMMPS

4 atoms
2 atom types

0 1.0280000000000002 xlo xhi
0 1.7805482301808062 ylo yhi
0 1.678716970387405 zlo zhi

Atoms

1 1 0.0 0.0 0.0
2 1 0.0 0.5935160767269355 0.8393584851937025
3 2 0.5140000000000001 0.8902741150904031 0.0
4 2 0.5140000000000001 1.4837901918173388 0.8393584851937025
