LAMMPS

12 atoms
2 atom types

0 2.9076230842390847 xlo xhi
0 2.518075455581108 ylo yhi
0 2.374064306907742 zlo zhi

Atoms

1 1 0.7269057710597712 0.41967924259685163 0.5935160767269357
2 1 0.7269057710597712 2.0983962129842566 1.7805482301808067
3 1 1.4538115421195423 1.6787169703874056 0.5935160767269357
4 1 1.4538115421195423 0.8393584851937027 1.7805482301808067
5 1 2.180717313179313 0.41967924259685163 0.5935160767269357
6 1 2.180717313179313 2.0983962129842566 1.7805482301808067
7 1 0.0 1.6787169703874059 0.5935160767269357
8 1 0.0 0.8393584851937027 1.7805482301808067
9 2 0.0 0.0 0.0
10 2 0.7269057710597712 1.259037727790554 0.0
11 2 1.4538115421195423 0.0 0.0
12 2 2.180717313179313 1.2590377277905542 0.0
