LAMMPS

32 atoms
2 atom types

0 5.036150911162213 xlo xhi
0 4.361434626358624 ylo yhi
0 4.111999999999999 zlo zhi

Atoms

1 1 1.2590377277905533 0.7269057710597702 0.5140000000000001
2 1 0.0 0.0 2.5700000000000007
3 1 1.2590377277905533 0.7269057710597702 3.5979999999999994
4 1 0.0 0.0 1.5419999999999998
5 1 1.2590377277905533 3.634528855298854 1.0280000000000002
6 1 1.2590377277905533 3.634528855298854 3.0839999999999996
7 1 2.5180754555811067 2.9076230842390824 0.5140000000000001
8 1 1.2590377277905533 2.180717313179312 2.5700000000000007
9 1 2.5180754555811067 2.9076230842390824 3.5979999999999994
10 1 1.2590377277905533 2.180717313179312 1.5419999999999998
11 1 2.5180754555811067 1.4538115421195414 1.0280000000000002
12 1 2.5180754555811067 1.4538115421195414 3.0839999999999996
13 1 3.77711318337166 0.7269057710597702 0.5140000000000001
14 1 2.5180754555811067 0.0 2.5700000000000007
15 1 3.77711318337166 0.7269057710597702 3.5979999999999994
16 1 2.5180754555811067 0.0 1.5419999999999998
17 1 3.77711318337166 3.634528855298854 1.0280000000000002
18 1 3.77711318337166 3.634528855298854 3.0839999999999996
19 1 0.0 2.9076230842390816 0.5140000000000001
20 1 3.77711318337166 2.1807173131793123 2.5700000000000007
21 1 0.0 2.9076230842390816 3.5979999999999994
22 1 3.77711318337166 2.1807173131793123 1.5419999999999998
23 1 0.0 1.4538115421195414 1.0280000000000002
24 1 0.0 1.4538115421195414 3.0839999999999996
25 2 0.0 0.0 0.0
26 2 0.0 2.907623084239083 2.0560000000000005
27 2 1.2590377277905533 2.180717313179312 0.0
28 2 1.2590377277905533 0.7269057710597707 2.0560000000000005
29 2 2.5180754555811067 0.0 0.0
30 2 2.5180754555811067 2.907623084239083 2.0560000000000005
31 2 3.77711318337166 2.1807173131793123 0.0
32 2 3.77711318337166 0.7269057710597702 2.0560000000000005
