LAMMPS

5 atoms
2 atom types

0 2.056 xlo xhi
0 2.056 ylo yhi
0 2.056 zlo zhi

Atoms

1 1 1.028 1.028 1.028
2 2 0.0 0.0 0.0
3 2 1.028 0.0 1.028
4 2 1.028 1.028 0.0
5 2 0.0 1.028 1.028
