LAMMPS

32 atoms
2 atom types

0 2.907623084239084 xlo xhi
0 2.907623084239084 ylo yhi
0 2.907623084239084 zlo zhi

Atoms

1 1 0.726905771059771 0.0 0.726905771059771
2 1 0.0 0.726905771059771 0.726905771059771
3 1 0.726905771059771 0.0 2.1807173131793127
4 1 0.0 0.726905771059771 2.1807173131793127
5 1 0.0 0.0 1.453811542119542
6 1 0.726905771059771 0.726905771059771 1.453811542119542
7 1 0.726905771059771 1.453811542119542 0.726905771059771
8 1 0.0 2.1807173131793127 0.726905771059771
9 1 0.0 1.453811542119542 0.0
10 1 0.726905771059771 2.1807173131793127 0.0
11 1 0.726905771059771 1.453811542119542 2.1807173131793127
12 1 0.0 2.1807173131793127 2.1807173131793127
13 1 2.1807173131793127 0.0 0.726905771059771
14 1 1.453811542119542 0.726905771059771 0.726905771059771
15 1 1.453811542119542 0.0 0.0
16 1 2.1807173131793127 0.726905771059771 0.0
17 1 2.1807173131793127 0.0 2.1807173131793127
18 1 1.453811542119542 0.726905771059771 2.1807173131793127
19 1 2.1807173131793127 1.453811542119542 0.726905771059771
20 1 1.453811542119542 2.1807173131793127 0.726905771059771
21 1 2.1807173131793127 1.453811542119542 2.1807173131793127
22 1 1.453811542119542 2.1807173131793127 2.1807173131793127
23 1 1.453811542119542 1.453811542119542 1.453811542119542
24 1 2.1807173131793127 2.1807173131793127 1.453811542119542
25 2 0.0 0.0 0.0
26 2 0.726905771059771 0.726905771059771 0.0
27 2 0.0 1.453811542119542 1.453811542119542
28 2 0.726905771059771 2.1807173131793127 1.453811542119542
29 2 1.453811542119542 0.0 1.453811542119542
30 2 2.1807173131793127 0.726905771059771 1.453811542119542
31 2 1.453811542119542 1.453811542119542 0.0
32 2 2.1807173131793127 2.1807173131793127 0.0
