LAMMPS

16 atoms
2 atom types

0 3.357433940774811 xlo xhi
0 2.9076230842390847 ylo yhi
0 2.7413333333333347 zlo zhi

Atoms

1 1 0.8393584851937027 0.4846038473731804 0.3426666666666669
2 1 0.0 0.0 1.7133333333333343
3 1 1.6787169703874054 1.938415389492723 0.3426666666666669
4 1 0.8393584851937027 1.4538115421195423 1.7133333333333343
5 1 2.5180754555811085 0.4846038473731804 0.3426666666666669
6 1 1.6787169703874054 0.0 1.7133333333333343
7 1 0.0 1.9384153894927223 0.3426666666666669
8 1 2.5180754555811085 1.4538115421195426 1.7133333333333343
9 2 0.0 0.0 0.0
10 2 0.0 1.9384153894927232 1.3706666666666676
11 2 0.8393584851937027 1.4538115421195423 0.0
12 2 0.8393584851937027 0.4846038473731808 1.3706666666666676
13 2 1.6787169703874054 0.0 0.0
14 2 1.6787169703874054 1.9384153894927232 1.3706666666666676
15 2 2.5180754555811085 1.4538115421195426 0.0
16 2 2.5180754555811085 0.4846038473731804 1.3706666666666676
